# t (s)	mx ()	my ()	mz ()
0	-3.6727186e-05	0.00018600062	0.7112696
2.3827282742231844e-11	0.00020451927	-3.4836903e-05	0.7113609
4.7619695778877444e-11	-0.00010790367	-0.00017899871	0.71156317
7.144769771642315e-11	-0.0001281005	0.000179262	0.71171904
9.523947554016451e-11	0.00023297737	6.1640225e-05	0.71170664
1.1907033428682258e-10	-5.5964494e-05	-0.00024698995	0.7115356
1.4287695885818636e-10	-0.00021920077	0.00015872241	0.7113391
1.666895999729235e-10	0.00025191045	0.00013513117	0.71127015
1.9049386673751972e-10	9.3612204e-07	-0.00031051607	0.7113824
2.1430654257494198e-10	-0.0002784573	0.00013631253	0.71158826
2.381016998172892e-10	0.0002685188	0.00019711512	0.711727
2.619108835088471e-10	4.7281963e-05	-0.00033830866	0.71169084
2.8572095849656626e-10	-0.00031409235	0.00012695132	0.7115076
3.0953077059309965e-10	0.00025660664	0.00023061805	0.71131986
3.3335278971228876e-10	6.321164e-05	-0.00033963093	0.71127415
3.5716247957051647e-10	-0.00031636245	0.00010714209	0.711406
3.809734812248272e-10	0.00022773509	0.00021421592	0.7116125
4.04767812683215e-10	6.993612e-05	-0.00030567357	0.7117325
4.285717355497408e-10	-0.00025715271	8.895939e-05	0.7116728
4.5239134755846454e-10	0.00017672424	0.00016109197	0.7114795
4.762018153175784e-10	5.1728544e-05	-0.00020523598	0.71130335
5.00007536726307e-10	-0.00014914764	7.01799e-05	0.7112815
5.238304158951017e-10	6.637105e-05	5.5352604e-05	0.7114311
5.476261735112636e-10	1.2068173e-05	-3.3236232e-05	0.71163523
5.714470974443832e-10	4.071351e-05	2.373947e-06	0.711735
5.95245908618241e-10	-0.00014070694	-0.00013489615	0.7116526
6.190575710894859e-10	1.6272921e-05	0.00032851545	0.71145207
6.428742966208615e-10	0.00042235485	-0.0002623209	0.7112898
6.66682535170456e-10	-0.0012215612	-0.0010153799	0.7112911
6.90490184639874e-10	-0.0014280308	0.00111225	0.71145797
7.143036129125744e-10	0.0015578163	0.0009971543	0.7116601
7.381000820204452e-10	0.00041697995	-0.001823282	0.71173966
7.619061819769687e-10	-0.001971473	0.00030295103	0.7116349
7.857246317862667e-10	0.0011347593	0.0017292885	0.7114275
8.09543282231717e-10	0.0011438163	-0.0017834695	0.71127933
8.333495747952307e-10	-0.0021640176	-0.0003282078	0.71130586
8.571571100536529e-10	0.000658008	0.0021508993	0.7114867
8.809702356652964e-10	0.0016876252	-0.0015213817	0.71168077
9.047731842815354e-10	-0.0021288742	-0.0008924305	0.711737
9.285782795073529e-10	0.000116242954	0.0023394483	0.7116117
9.5238457669451e-10	0.0020542496	-0.0011100486	0.7114024
9.76205229362244e-10	-0.0018899757	-0.0013977492	0.7112723
1.0000049773072307e-09	-0.00045276323	0.0023050192	0.7113226
1.0238113874286197e-09	0.0022649628	-0.00057909725	0.7115143
1.0476291817425222e-09	-0.001468089	-0.0017998156	0.7116979
1.071431288203911e-09	-0.0009921177	0.0020904355	0.71173006
1.0952525943887917e-09	0.0022904098	1.6096423e-05	0.71158594
1.1190653395643915e-09	-0.0009348895	-0.0020621247	0.7113776
1.1428779854459193e-09	-0.0014802585	0.0017049195	0.7112675
1.1666759878251268e-09	0.0021361057	0.0006279604	0.7113412
1.1904849766551176e-09	-0.0003076955	-0.0021945378	0.7115414
1.2142994019443146e-09	-0.0018617439	0.001177624	0.7117119
1.2381096144488157e-09	0.0018381848	0.001193185	0.7117199
1.2619196230991983e-09	0.00034165333	-0.002156028	0.71155894
1.285721508803028e-09	-0.0021033648	0.00058007776	0.7113546
1.3095387314964168e-09	0.0013951807	0.0016832137	0.71126604
1.333340193486467e-09	0.00096304336	-0.0019571956	0.7113623
1.3571456237933173e-09	-0.0022008151	-7.101022e-05	0.7115682
1.3809727198476966e-09	0.00085044344	0.0020320937	0.7117235
1.4047640276602694e-09	0.0015036148	-0.0016271825	0.7117071
1.4285818338588645e-09	-0.0021172974	-0.0007000979	0.7115318
1.452396017407976e-09	0.00026048376	0.0022236477	0.71133405
1.4761932390237505e-09	0.0019293397	-0.0011612399	0.71126825
1.5000112214388783e-09	-0.0018707151	-0.0012674049	0.71138567
1.523813040578502e-09	-0.00036550884	0.0022459975	0.71159446
1.5476295040399758e-09	0.0021866718	-0.00061071286	0.7117323
1.571433545190557e-09	-0.0014867802	-0.001733344	0.7116916
1.595254199666032e-09	-0.0009441337	0.0020767488	0.7115041
1.6190541845671306e-09	0.0022770779	-2.21544e-05	0.71131593
1.6428635163817038e-09	-0.0009675913	-0.0020642471	0.7112736
1.6666691437017349e-09	-0.0014554592	0.0017431811	0.71141016
1.6904811460104143e-09	0.0021891135	0.0005921376	0.71161926
1.714305656597395e-09	-0.00037931665	-0.00222171	0.71173775
1.7381122577933543e-09	-0.0018551521	0.001280767	0.7116734
1.761921094235949e-09	0.0019206961	0.0011457031	0.7114762
1.7857182921458252e-09	0.00024048975	-0.0022196926	0.7113
1.8095258726469216e-09	-0.0021172038	0.0006943617	0.7112818
1.8333534803441643e-09	0.0015090755	0.0016225906	0.7114362
1.85715398930223e-09	0.000860772	-0.0020439562	0.7116424
1.880971567107891e-09	-0.002208351	7.129983e-05	0.7117399
1.9047685262782705e-09	0.0009836302	0.0019830852	0.71165276
1.928575210070656e-09	0.0013983713	-0.0017080376	0.7114487
1.952398299373521e-09	-0.0021456853	-0.0005592227	0.71128666
1.9761929980646684e-09	0.00036949516	0.002186633	0.7112932
2.0000009783290934e-09	0.0018370225	-0.0012489954	0.71146315
2.023828103545758e-09	-0.0019095095	-0.0011592101	0.7116639
2.0476393499046397e-09	-0.00024902407	0.002218087	0.71173906
2.0714354601108687e-09	0.0021337497	-0.00070018123	0.7116302
2.0952530453073208e-09	-0.0015289837	-0.0016459737	0.71142197
2.1190526490818726e-09	-0.00085724593	0.002088246	0.7112769
2.1428629467001436e-09	0.0022557576	-8.499451e-05	0.7113079
2.166670116377822e-09	-0.0010312087	-0.0020154088	0.7114907
2.190490323920529e-09	-0.0014005556	0.0017820789	0.71168303
2.2142885077123766e-09	0.0022015795	0.0005172552	0.71173495
2.2381047404549303e-09	-0.00045596945	-0.0022232498	0.71160597
2.2619177389269634e-09	-0.0018165682	0.0013427081	0.7113966
2.285722881522094e-09	0.0019819185	0.0010904125	0.71127
2.309542059780091e-09	0.00016622407	-0.0022477761	0.7113248
2.333347455408074e-09	-0.0021065008	0.0007947559	0.71151847
2.3571455781676217e-09	0.0015898473	0.0015836317	0.7116995
2.380962145953559e-09	0.0007633997	-0.0021039099	0.7117273
2.4047715806792416e-09	-0.0022306228	0.0001813244	0.71158
2.4285872369754963e-09	0.0010890063	0.0019399959	0.71137226
2.4523962896585785e-09	0.0013182393	-0.0017994128	0.7112661
2.4761908374107546e-09	-0.0021731292	-0.00045563155	0.7113441
2.5000089367703277e-09	0.00049370294	0.0021663501	0.71154565
2.5238295627166754e-09	0.0017673125	-0.0013440377	0.71171343
2.547633365943258e-09	-0.0019632273	-0.001039819	0.7117168
2.5714365689613794e-09	-0.0001373447	0.002220633	0.7115533
2.5952437246161106e-09	0.002074735	-0.00079928926	0.71135
2.619048411309293e-09	-0.001595191	-0.0015655154	0.7112655
2.642866855235764e-09	-0.00075848505	0.002096165	0.7113659
2.6666842081041646e-09	0.0022333064	-0.00018854083	0.71157265
2.6904971930927765e-09	-0.0011025879	-0.001952774	0.7117246
2.7142897188041087e-09	-0.0013100482	0.0018261527	0.71170354
2.738101255798257e-09	0.002210543	0.00043533917	0.71152586
2.761908586819933e-09	-0.0005355554	-0.0021889303	0.7113299
2.7857300627304148e-09	-0.0017716967	0.0014037101	0.7112683
2.80952748465456e-09	0.0020087697	0.001021667	0.71138936
2.8333364638889814e-09	8.430559e-05	-0.0022618147	0.7115985
2.857154564239789e-09	-0.0020813036	0.000868633	0.7117328
2.88097094428824e-09	0.0016686921	0.0015213675	0.7116875
2.9047621068539363e-09	0.0006920906	-0.0021468443	0.711498
2.9285885523733157e-09	-0.002232175	0.0002788698	0.71131176
2.952390484505923e-09	0.001176214	0.0019175231	0.71127415
2.976206369284884e-09	0.0012428424	-0.0018634504	0.7114144
3.0000067958959625e-09	-0.0022150988	-0.00035377173	0.711623
3.023816314164754e-09	0.0005979011	0.0021502166	0.7117375
3.0476190823794813e-09	0.0017052087	-0.0014464416	0.7116688
3.0714359542038798e-09	-0.0020166098	-0.0009493613	0.7114702
3.0952546149401903e-09	-1.786433e-05	0.0022263005	0.71129656
3.119053470167688e-09	0.002039061	-0.0008993212	0.7112831
3.1428735737559806e-09	-0.0016657199	-0.0014710753	0.7114406
3.1666748632109066e-09	-0.00065236003	0.0021323462	0.71164584
3.1904923384992717e-09	0.0022054801	-0.00029681748	0.7117392
3.214303139900139e-09	-0.0011978227	-0.0018862708	0.7116478
3.2381073522104202e-09	-0.0012204769	0.0018670505	0.71144295
3.261915506880849e-09	0.0022132732	0.00032778704	0.7112841
3.285727984632828e-09	-0.0006177703	-0.0021536814	0.71129537
3.3095255308771105e-09	-0.0016970254	0.0014618174	0.7114676
3.333348854118262e-09	0.0020462535	0.00093779975	0.71166694
3.3571568953446274e-09	-9.275409e-06	-0.0022467177	0.7117376
3.380964786712258e-09	-0.0020441317	0.00095321843	0.71162486
3.4047624530841715e-09	0.0017132984	0.0014601861	0.7114165
3.4285840603089433e-09	0.00060283917	-0.002174608	0.7112746
3.4523851985832485e-09	-0.002225872	0.00035057135	0.7113102
3.4761908172894355e-09	0.0012538184	0.0018717652	0.7114952
3.500011691996958e-09	0.0011791394	-0.0019243412	0.71168566
3.5238156063369333e-09	-0.0022321518	-0.00025941062	0.711733
3.5476253115917996e-09	0.0006980272	0.0021415376	0.71160036
